8
Lattice="4.2316000000000003 0.0000000000000000 0.0000000000000000 0.0000000000000000 4.2316000000000003 0.0000000000000000 0.0000000000000000 0.0000000000000000 4.2316000000000003" Properties=species:S:1:pos:R:3:forces:R:3 energy=-73.6898319719090011 free_energy=-73.6898319719090011 pbc="T T T"
Mg 0.0000000000000000 0.0000000000000000 0.0000000000000000 0.0000000053522479 0.0000000000019783 0.0000000000000002
Mg 2.1158000000000001 2.1158000000000001 0.0000000000000000 0.0000000053522513 -0.0000000000013261 0.0000000000000004
Mg 2.1158000000000001 0.0000000000000000 2.1158000000000001 0.0000000053522505 0.0000000000014990 0.0000000000000001
Mg 0.0000000000000000 2.1158000000000001 2.1158000000000001 0.0000000053522498 0.0000000000014680 0.0000000000000002
O 2.1158000000000001 2.1158000000000001 2.1158000000000001 -0.0000000053522500 0.0000000000013273 0.0000000000000000
O 2.1158000000000001 0.0000000000000000 0.0000000000000000 -0.0000000053522486 -0.0000000000015001 -0.0000000000000008
O 0.0000000000000000 2.1158000000000001 0.0000000000000000 -0.0000000053522480 -0.0000000000014667 -0.0000000000000001
O 0.0000000000000000 0.0000000000000000 2.1158000000000001 -0.0000000053522509 -0.0000000000019780 -0.0000000000000001
