70
Lattice="19.9999996430165 0.0 0.0 0.0 14.999999732262376 0.0 0.0 0.0 14.999999732262376" Properties=species:S:1:pos:R:3:forces:R:3 energy=-105.869050634042 pbc="T T T"
Mg       0.27622969       0.26645645       0.24300080      -0.04880146      -0.03303505       0.03441728
Mg       2.16565324       2.16397913       0.00807755       0.21764016       0.21135335       0.12860828
Mg       2.17109861       0.01797932       2.14170814       0.15461797       0.03141598       0.21603227
Mg       0.03052374       2.16045579       2.15468535       0.07000299       0.20623606       0.18240494
O        2.19860217       0.04864664       0.03948843       0.02429447       0.72065326       0.66872906
O        0.04337439       2.19042182       0.05042700       0.73415798       0.02331014       0.67439012
O        0.08107955       0.04649513       2.16668308       0.71194443       0.74213098      -0.03818620
O        2.14831983       2.14885816       2.12259668      -0.06199933      -0.04251355      -0.08377066
Mg       4.24519738       0.12764426       0.11852890       0.00403502       0.14769238       0.17978176
Mg       6.24749753       2.13089163       0.12290063      -0.14467262       0.01842244       0.17835906
Mg       6.24819570       0.12603777       2.13075650      -0.15040296       0.14544958       0.00381868
Mg       4.23644912       2.14766849       2.14328472      -0.19113016       0.20865519       0.16736805
O        6.21729215       0.15799273       0.16069108      -0.67514372       0.69247629       0.66280268
O        4.20324643       2.17533916      -0.00956867       0.04970239      -0.04148968       0.62414588
O        4.20281335      -0.01745184       2.17087659       0.07240592       0.67183984      -0.08538421
O        6.38946497       2.17386169       2.17465334      -0.65635254      -0.04262383      -0.06268661
Mg       0.12711219       4.24324949       0.12025540       0.13915276      -0.00554146       0.19452171
Mg       2.13227036       6.24736642       0.12278388       0.01060101      -0.13603675       0.17128312
Mg       2.14983419       4.23502913       2.13737170       0.20746777      -0.17821705       0.17791660
Mg       0.12625767       6.24787708       2.12949155       0.13821206      -0.14844711       0.02311642
O        2.17312651       4.20274108      -0.01052956      -0.04000648       0.04305035       0.62995014
O        0.15864860       6.21813271       0.16018347       0.69337541      -0.69631546       0.66468498
O       -0.01782679       4.20114071       2.17453982       0.68573485       0.03781646      -0.07001986
O        2.17309916       6.38857818       2.17415228      -0.03544222      -0.67106029      -0.08217968
Mg       4.21300716       4.21144003       0.01824939      -0.18618119      -0.18282333       0.11129197
Mg       6.11008929       6.11096116       0.26285424       0.02574229       0.02960843      -0.01257657
Mg       6.35118973       4.21329103       2.16103563      -0.08092780      -0.19234472       0.19859862
Mg       4.21493787       6.35120601       2.16053680      -0.19870596      -0.07385534       0.20875535
O        6.33009171       4.18801146       0.04893065      -0.70871074      -0.03274905       0.69018698
O        4.18617447       6.33003114       0.04889780      -0.02554008      -0.71505854       0.69045694
O        4.23019445       4.23246534       2.14517765       0.06143649       0.05541124      -0.07029044
O        6.33003807       6.33063605       2.18691079      -0.70569458      -0.71554422       0.01996020
Mg       0.11306749       0.13022111       4.23523277      -0.08640010       0.18725929      -0.01981468
Mg       2.14575663       2.14369434       4.15246814       0.12824545       0.12487291       0.01574010
Mg       2.15559008      -0.07018440       6.18917043      -0.02534157       0.08132983      -0.36960460
Mg       0.00983927       2.10741810       6.38180978       0.10441968      -0.03836113      -0.58827513
O        2.18775234      -0.00019979       4.18592556      -0.04366316       0.61671565       0.01646152
O        0.02506793       2.17962838       4.22584081       0.61796392      -0.05139650      -0.05067748
O        0.22281845       0.12702123       6.19250171       0.52850238       0.64489469      -0.48739507
O        2.16380080       2.17976777       6.47747157      -0.02743892       0.01492293      -0.43416281
Mg       4.22606873       0.03493041       4.20432139      -0.24135872       0.14517543      -0.18001085
Mg       6.35397065       2.16108210       4.20866754      -0.09416812       0.19107824      -0.12846700
Mg       6.10994371       0.24403656       6.10419315       0.14286113      -0.09453412      -0.10328470
Mg       4.30961334       2.16870142       6.50488891       0.06962165       0.30177373      -0.34515674
O        6.33671845       0.04551653       4.18476333      -0.67795315       0.71734040      -0.08157504
O        4.21539365       2.14550055       4.25088534       0.06106571      -0.06720522      -0.19047988
O        4.18012781       0.01260782       6.27566307       0.05637637       0.57570218      -0.56132508
O        6.36529615       2.18126302       6.31145722      -0.79214536      -0.01965947      -0.55612734
Mg       0.03053132       4.21266501       4.21278541       0.10668225      -0.28051796      -0.06448275
Mg       2.16262912       6.36907461       4.19701682       0.17455968      -0.01418696      -0.15143271
Mg       2.16703771       4.34373487       6.30421307       0.23457211      -0.26007993      -0.15151519
Mg       0.24105783       6.13600743       6.10326427      -0.06711811       0.12229714      -0.07278329
O        2.14900903       4.22342050       4.23572895      -0.05639553       0.03321326       0.01940607
O        0.04957921       6.34365416       4.18035143       0.70793016      -0.66583477      -0.07908989
O        0.05917089       4.21246943       6.28018649       0.55434711       0.01244406      -0.61330302
O        2.18103102       6.37086965       6.31881883      -0.01239963      -0.67992057      -0.72643696
Mg       4.23420620       4.22061517       4.22812614      -0.23917737      -0.27078572      -0.08446980
Mg       6.24879138       6.24742916       4.24011644      -0.15599740      -0.14032694      -0.03336129
Mg       6.24949920       4.25224525       6.24473300      -0.07638542       0.02811410      -0.24797587
Mg       4.25810082       6.25933374       6.24339635      -0.01968474      -0.08268008      -0.21465653
O        6.39420761       4.20367290       4.20051524      -0.64873771       0.03532879       0.02622642
O        4.19961529       6.40086151       4.19875574       0.06748801      -0.63143392       0.01905815
O        4.18881217       4.22078118       6.34069001       0.20286124       0.07956503      -0.53830702
O        6.22109513       6.21912348       6.21690891      -0.64570356      -0.64692175      -0.68281177
C        2.12817766       2.13785225       7.93251709       0.36980179       0.15395101      -5.14323329
O        3.29312805       2.11279023       8.40595149       6.88550864      -0.19871903       2.96352360
O        0.95764269       2.14632169       8.37485444      -7.37400593       0.03026362       2.84342198
C       -3.28294175      -0.02312238       4.25346183      -0.30252394      -0.06212421       0.06967675
O       -2.11995146      -0.05224142       4.24580265      16.84382713      -0.42397313      -0.07928113
O       -4.44953713       0.00900316       4.25191304     -16.36084617       0.45455358       0.00949487
70
Lattice="19.9999996430165 0.0 0.0 0.0 14.999999732262376 0.0 0.0 0.0 14.999999732262376" Properties=species:S:1:pos:R:3:forces:R:3 energy=-106.448325707358 pbc="T T T"
Mg       0.28206678       0.27117299       0.24602027      -0.00241699       0.02218814       0.08005205
Mg       2.17630698       2.17434026       0.01006007       0.13481020       0.13050203       0.12443005
Mg       2.18066454       0.01948297       2.15124516       0.07750558       0.03847075       0.11488782
Mg       0.03501755       2.16972394       2.16460445       0.07054160       0.13571856       0.10128931
O        2.20685760       0.06032039       0.04706696      -0.02302905       0.70369890       0.66069771
O        0.05495227       2.19794721       0.05973310       0.72168171      -0.02227523       0.66164130
O        0.09143080       0.05852279       2.17251502       0.70085551       0.72933254      -0.07074027
O        2.15067567       2.15128649       2.12143499      -0.07000479      -0.05363905      -0.04797554
Mg       4.23672203       0.13331438       0.12300356       0.07215663       0.13898161       0.16528143
Mg       6.24286288       2.14133974       0.12810421      -0.13416945      -0.05237492       0.16855958
Mg       6.24403998       0.13062099       2.14042590      -0.13353208       0.14394522      -0.08098653
Mg       4.23005105       2.15455844       2.14943983      -0.16668439       0.17848205       0.12906428
O        6.20969432       0.16667339       0.16818736      -0.68354557       0.70199787       0.67673806
O        4.20056206       2.17981809      -0.00449268       0.07764726      -0.07129052       0.62362240
O        4.20130127      -0.01067241       2.17253779       0.09080507       0.67071421      -0.10503937
O        6.38274168       2.17802935       2.17798676      -0.65886091      -0.06992246      -0.07716166
Mg       0.13217802       4.23342349       0.12583279       0.13026768       0.06101694       0.18003436
Mg       2.14247233       6.24273102       0.12772162      -0.06161039      -0.12661561       0.15880903
Mg       2.15682940       4.22899819       2.14282958       0.17409298      -0.15665342       0.15366413
Mg       0.13066030       6.24283747       2.13960128       0.13094364      -0.14087487      -0.05996930
O        2.17730466       4.19965816      -0.00578859      -0.06557742       0.07101564       0.63083074
O        0.16711691       6.20952077       0.16777691       0.70205365      -0.70605815       0.68109660
O       -0.01148133       4.19658743       2.17859165       0.68544715       0.06293180      -0.08463108
O        2.17746526       6.38248444       2.17522994      -0.06225971      -0.67324778      -0.09519594
Mg       4.20404587       4.20236780       0.02118180      -0.10974389      -0.10406600       0.10156066
Mg       6.10589878       6.10683259       0.26708256      -0.02284264      -0.02016663       0.03271007
Mg       6.34890856       4.20412817       2.17036519      -0.07434771      -0.12197952       0.11750916
Mg       4.20593343       6.34852692       2.17009560      -0.12442700      -0.06736678       0.12653197
O        6.31854204       4.18052324       0.06022320      -0.69475866       0.01760688       0.67784568
O        4.17887685       6.31843031       0.06009394       0.02570020      -0.70191738       0.67792411
O        4.22998090       4.23153205       2.14632314       0.06612888       0.05985537      -0.06732808
O        6.31867658       6.31922940       2.19382741      -0.69179803      -0.70389405      -0.02454582
Mg       0.11354142       0.14261547       4.22182225      -0.09577123       0.12971541       0.07440704
Mg       2.14973329       2.14512787       4.15844850       0.11854211       0.12392109      -0.06026996
Mg       2.16788354      -0.06981153       6.17330680      -0.11943585       0.01549427      -0.32927536
Mg       0.02869423       2.11368241       6.38695954      -0.03431071      -0.07292225      -0.61525603
O        2.18879999       0.00275001       4.17494840      -0.05242880       0.63030033       0.06697241
O        0.02894258       2.17989129       4.22492427       0.63439404      -0.06004686      -0.04255672
O        0.23044214       0.13023325       6.18615873       0.57725924       0.66859898      -0.51930375
O        2.16933344       2.18776377       6.47486354      -0.03307550       0.01128501      -0.64775913
Mg       4.21776864       0.04407411       4.19131831      -0.15811363       0.12078045      -0.09460626
Mg       6.34914519       2.17036167       4.20254776      -0.07895747       0.12420455      -0.07482284
Mg       6.10881832       0.24658359       6.09455063       0.06831364      -0.02557945      -0.11843649
Mg       4.29326418       2.17818110       6.52054364       0.29761498       0.23101269      -0.39514825
O        6.32700900       0.05669795       4.17361323      -0.66898257       0.70618721      -0.03336113
O        4.21421636       2.14615161       4.25029383       0.05207837      -0.07949350      -0.20486194
O        4.17653999       0.01818830       6.26641621       0.08138258       0.57417880      -0.55536476
O        6.35360787       2.18632166       6.30499784      -0.79200292      -0.04869432      -0.55138134
Mg       0.03499879       4.20007384       4.20532072       0.09576259      -0.19118246       0.01052198
Mg       2.17165399       6.37070666       4.18764151       0.10768868      -0.01747935      -0.06727024
Mg       2.17466638       4.32496506       6.29817021       0.13970931      -0.04513991      -0.16397079
Mg       0.24260528       6.13933980       6.09485904       0.02989646       0.01174269      -0.10892775
O        2.15085335       4.22339180       4.23184504      -0.06350029       0.00853427       0.04057913
O        0.06094845       6.33512859       4.16913412       0.69111695      -0.65318058      -0.02362947
O        0.06875467       4.20751122       6.27056695       0.56153257       0.04504313      -0.60915532
O        2.18682618       6.36787299       6.30408766      -0.04608779      -0.70451497      -0.71716093
Mg       4.22779489       4.21041813       4.22272120      -0.20955955      -0.22046336      -0.05056417
Mg       6.24379415       6.24282824       4.22854631      -0.14529707      -0.12724975       0.04641608
Mg       6.24755808       4.24199241       6.23532589      -0.08085187       0.10280673      -0.22032262
Mg       4.24767630       6.26048344       6.23512461       0.04638265      -0.10108301      -0.20172843
O        6.38865031       4.20005335       4.19549214      -0.65379404       0.05281769       0.05547852
O        4.19705938       6.39620486       4.19402732       0.08733642      -0.62927960       0.04511541
O        4.18731491       4.21736839       6.33623979       0.20852039       0.08341865      -0.54356004
O        6.21531633       6.21283372       6.20794610      -0.67452255      -0.66979376      -0.70122422
C        2.13051035       2.13952446       7.92067460       0.23077427       0.15113242      -4.96758096
O        3.28302904       2.10976546       8.42564247       6.79396578      -0.22962136       3.08217748
O        0.96623713       2.14910902       8.38596874      -7.17671052       0.03588930       2.86211907
C       -3.29384266      -0.02574405       4.25193374       0.59646410      -0.04667564       0.00428333
O       -2.12003538      -0.06239819       4.24559793      15.34628987      -0.47222246      -0.05149771
O       -4.46446611       0.01046784       4.25355968     -15.76264867       0.49344281       0.04971765
70
Lattice="19.9999996430165 0.0 0.0 0.0 14.999999732262376 0.0 0.0 0.0 14.999999732262376" Properties=species:S:1:pos:R:3:forces:R:3 energy=-106.427141685946 pbc="T T T"
Mg       0.27769689       0.26677167       0.24165637       0.02694915       0.05619902       0.10571832
Mg       2.17844342       2.17635435       0.01316606       0.10106910       0.09821419       0.11256609
Mg       2.18165803       0.02245671       2.15212636       0.05684144       0.03461401       0.08546155
Mg       0.03920969       2.17148109       2.16620466       0.06014339       0.10637069       0.07095088
O        2.20312271       0.06305018       0.04828864      -0.00017670       0.69853176       0.65814281
O        0.05806959       2.19431482       0.06114615       0.71725350      -0.00115501       0.65665465
O        0.09209602       0.06228137       2.16853343       0.70029476       0.72260551      -0.04893341
O        2.15138344       2.15167310       2.12443922      -0.07387032      -0.05785656      -0.04957906
Mg       4.23664700       0.13283167       0.12154944       0.07945195       0.14467079       0.17394437
Mg       6.24421726       2.14262620       0.12721678      -0.13999632      -0.06364270       0.17711806
Mg       6.24616590       0.12961865       2.14020351      -0.14163540       0.15643952      -0.08935074
Mg       4.22814210       2.15635932       2.14981970      -0.14951180       0.15809699       0.11973903
O        6.21229183       0.16502805       0.16578030      -0.69951598       0.71750573       0.69008568
O        4.20221951       2.17911208      -0.00259155       0.07863110      -0.07455431       0.62206560
O        4.20305434      -0.00715340       2.17101009       0.08768594       0.66956827      -0.10916827
O        6.37933302       2.17719913       2.17745748      -0.65837266      -0.07219023      -0.07746894
Mg       0.13127381       4.23248894       0.12512288       0.13764456       0.06946902       0.18667385
Mg       2.14346401       6.24404131       0.12652644      -0.07276588      -0.13477297       0.16702645
Mg       2.15840710       4.22741926       2.14369868       0.15472869      -0.14218832       0.14746960
Mg       0.12934041       6.24388489       2.13993492       0.14226889      -0.15111482      -0.06950477
O        2.17663342       4.20105457      -0.00402218      -0.06888976       0.07326246       0.62997740
O        0.16515216       6.21111567       0.16563532       0.71704550      -0.72051109       0.69645483
O       -0.00840083       4.19671154       2.17857099       0.68466862       0.06979242      -0.08653594
O        2.17687131       6.37972685       2.17311973      -0.06694608      -0.67293231      -0.08724583
Mg       4.20270420       4.20113667       0.02440090      -0.07918150      -0.07364666       0.08918374
Mg       6.11071579       6.11164224       0.26209958      -0.05472714      -0.05253466       0.06597997
Mg       6.34622161       4.20251290       2.17166641      -0.06335200      -0.09512497       0.08799802
Mg       4.20442549       6.34550636       2.17159431      -0.09499008      -0.05651485       0.09445517
O        6.31577646       4.18431372       0.06285982      -0.68985840      -0.00032708       0.67235303
O        4.18295343       6.31550832       0.06262381       0.00560338      -0.69682171       0.67244508
O        4.23018215       4.23099954       2.14718677       0.06664117       0.06321287      -0.06710498
O        6.31601269       6.31634431       2.18991362      -0.68753952      -0.69979725      -0.00474075
Mg       0.11279349       0.14355594       4.21968577      -0.10453769       0.11879351       0.09879377
Mg       2.15012677       2.14466099       4.16316215       0.11721133       0.12158745      -0.08596037
Mg       2.16769739      -0.06739832       6.17078276      -0.11152353      -0.01040075      -0.31279863
Mg       0.03694071       2.11494848       6.38542650      -0.09493650      -0.08606694      -0.62271686
O        2.18620167       0.00416465       4.17469534      -0.04572096       0.63558112       0.06385417
O        0.03015010       2.17784127       4.22686636       0.64005278      -0.05414268      -0.03956278
O        0.22829202       0.12794463       6.18973649       0.59715392       0.68135755      -0.55121782
O        2.17149411       2.18911860       6.46586033      -0.03375239      -0.00321528      -0.57161696
Mg       4.21692956       0.04951312       4.18783399      -0.13033605       0.10021874      -0.04868775
Mg       6.34522141       2.17232266       4.20289331      -0.06892302       0.09368291      -0.06456180
Mg       6.11543079       0.24277262       6.09710766       0.01330130      -0.00169634      -0.13698505
Mg       4.28927894       2.17905096       6.51901163       0.35200487       0.19612001      -0.38388398
O        6.32460254       0.05961953       4.17511472      -0.66391185       0.70399766      -0.04974795
O        4.21286053       2.14546239       4.25003150       0.05611346      -0.07724073      -0.20001299
O        4.18095176       0.02028445       6.26653536       0.05878741       0.57565486      -0.56503339
O        6.34725640       2.18188217       6.30576271      -0.77307857      -0.02222479      -0.55591883
Mg       0.03811860       4.19738012       4.20476322       0.08447072      -0.15556957       0.03368765
Mg       2.17335002       6.36960345       4.18704387       0.08185822      -0.01499771      -0.05132655
Mg       2.17442634       4.31765668       6.29433338       0.11800041       0.04897516      -0.15432970
Mg       0.23878360       6.14604644       6.09767638       0.07058216      -0.04848766      -0.13500321
O        2.15112743       4.22177148       4.23150482      -0.06516086       0.00864452       0.03961099
O        0.06331510       6.33300409       4.17091475       0.68594338      -0.64905858      -0.03669968
O        0.07142244       4.21060588       6.27074999       0.56469605       0.04502742      -0.61576871
O        2.18297018       6.36559898       6.29924942      -0.02564217      -0.70033384      -0.71098977
Mg       4.22662159       4.20854349       4.22190346      -0.19654139      -0.20192278      -0.03076066
Mg       6.24494613       6.24444575       4.22701103      -0.15161555      -0.13569795       0.06136022
Mg       6.25048316       4.24029276       6.23448339      -0.10578810       0.12824213      -0.21617842
Mg       4.24540833       6.26438433       6.23446884       0.07125718      -0.13616681      -0.20410022
O        6.38574707       4.20041601       4.19597330      -0.65457643       0.05773762       0.05788446
O        4.19865032       6.39354130       4.19445158       0.08574918      -0.62779633       0.04731974
O        4.18850478       4.21662254       6.33679768       0.20622198       0.09562491      -0.55425738
O        6.21805268       6.21556059       6.20872290      -0.70110980      -0.69166460      -0.71757926
C        2.12888283       2.13920815       7.91489853       0.62901322       0.13773923      -5.06943525
O        3.27747672       2.10845513       8.43747920       6.52998881      -0.22800138       3.01303334
O        0.97220414       2.15010111       8.39400078      -7.29820928       0.04604000       2.97310025
C       -3.29647322      -0.02707046       4.25093115       0.47814912      -0.03437797      -0.02850690
O       -2.12567650      -0.06634271       4.24572093      15.74517339      -0.51774796      -0.04105278
O       -4.46505389       0.01101866       4.25447621     -16.03595745       0.52891812       0.07321572
70
Lattice="19.9999996430165 0.0 0.0 0.0 14.999999732262376 0.0 0.0 0.0 14.999999732262376" Properties=species:S:1:pos:R:3:forces:R:3 energy=-106.459028217721 pbc="T T T"
Mg       0.27389284       0.26323177       0.23754890       0.03975194       0.07362035       0.11838743
Mg       2.17949300       2.17727838       0.01727191       0.08229172       0.08148750       0.09389574
Mg       2.18162958       0.02692721       2.15110503       0.04983827       0.02221255       0.07983466
Mg       0.04506827       2.17228545       2.16641007       0.04006948       0.08834168       0.05915520
O        2.19899972       0.06590616       0.04955628       0.02929269       0.69453883       0.65543750
O        0.06155638       2.19028385       0.06251487       0.71349274       0.02768633       0.65150010
O        0.09238910       0.06656049       2.16396676       0.70026828       0.71608750      -0.02462824
O        2.15277803       2.15257177       2.12931852      -0.07994410      -0.06368564      -0.06651992
Mg       4.23762956       0.13286998       0.12007475       0.07678469       0.14754263       0.18113680
Mg       6.24538844       2.14314954       0.12666824      -0.14364598      -0.06410298       0.18210343
Mg       6.24838353       0.12927850       2.13848548      -0.15038800       0.16504453      -0.08352687
Mg       4.22665593       2.15775757       2.14951188      -0.13337889       0.13862844       0.11691072
O        6.21516910       0.16361469       0.16324435      -0.71021125       0.72833521       0.69669676
O        4.20414393       2.17826203      -0.00038691       0.07547017      -0.07289962       0.62101067
O        4.20478914      -0.00298672       2.16896291       0.08407220       0.66895275      -0.11141751
O        6.37531730       2.17619424       2.17702047      -0.65584656      -0.07027122      -0.07835494
Mg       0.13078403       4.23230161       0.12463990       0.14240552       0.06832430       0.19105442
Mg       2.14359978       6.24505513       0.12543651      -0.07436952      -0.14132918       0.17375251
Mg       2.15954414       4.22625909       2.14425005       0.13722572      -0.12866576       0.14552766
Mg       0.12844156       6.24441555       2.13895030       0.14993348      -0.15837441      -0.06332401
O        2.17584174       4.20268592      -0.00187888      -0.06735036       0.07122838       0.62940224
O        0.16318162       6.21250319       0.16363725       0.72837584      -0.72978069       0.70404857
O       -0.00479218       4.19685914       2.17864711       0.68499695       0.07455752      -0.08903885
O        2.17608950       6.37655965       2.17107059      -0.06674497      -0.67200337      -0.08003263
Mg       4.20263520       4.20120817       0.02875295      -0.06424026      -0.05893000       0.07054367
Mg       6.11498116       6.11584899       0.25756166      -0.06953513      -0.06844578       0.08475349
Mg       6.34233291       4.20188064       2.17164810      -0.04711305      -0.08098945       0.07488429
Mg       4.20409447       6.34112059       2.17171584      -0.07995599      -0.04008475       0.07795413
O        6.31310350       4.18878336       0.06553843      -0.68488872      -0.02718896       0.66670046
O        4.18772770       6.31256905       0.06513871      -0.02289917      -0.69175767       0.66669866
O        4.22956514       4.22961288       2.14905339       0.07093155       0.07063242      -0.07255089
O        6.31344739       6.31340122       2.18537017      -0.68323574      -0.69559556       0.02205290
Mg       0.11148254       0.14411473       4.21865633      -0.10563647       0.11195368       0.11169176
Mg       2.15055295       2.14396698       4.16695949       0.11507798       0.11692442      -0.08932463
Mg       2.16709757      -0.06615252       6.16779538      -0.10050826      -0.01617614      -0.29418667
Mg       0.04465998       2.11567938       6.38366502      -0.11644406      -0.09282272      -0.60712492
O        2.18345000       0.00615550       4.17491156      -0.03447475       0.63863147       0.05063994
O        0.03213036       2.17579878       4.22975968       0.64386881      -0.04600588      -0.04217965
O        0.22750356       0.12641545       6.19281130       0.60591213       0.68485914      -0.57693271
O        2.17393849       2.18971620       6.46032161      -0.04089199      -0.01582660      -0.39710049
Mg       4.21751051       0.05632399       4.18545223      -0.12199130       0.07573517      -0.02239956
Mg       6.33966422       2.17326902       4.20410230      -0.05658157       0.07569909      -0.06708593
Mg       6.12120254       0.23949160       6.09907759      -0.02490998       0.00513977      -0.14453892
Mg       4.28817483       2.17827372       6.51793522       0.36938810       0.17833318      -0.38762957
O        6.32238178       0.06290685       4.17694250      -0.65836213       0.70141525      -0.06953176
O        4.21017044       2.14527445       4.24960005       0.07163035      -0.07536863      -0.19811055
O        4.18533541       0.02298424       6.26618178       0.03964017       0.57565384      -0.56925976
O        6.34014440       2.17696853       6.30682890      -0.74843995       0.00872846      -0.55951889
Mg       0.04227078       4.19599060       4.20531822       0.06759241      -0.13647445       0.04324298
Mg       2.17413569       6.36748350       4.18707614       0.06739690      -0.00659264      -0.05107652
Mg       2.17319884       4.31398176       6.28890821       0.10995540       0.08058156      -0.12898551
Mg       0.23622726       6.15157399       6.09952450       0.08214873      -0.08689673      -0.14487655
O        2.15194973       4.21859873       4.23096498      -0.06727798       0.01882367       0.03559585
O        0.06560531       6.33083356       4.17313757       0.68257986      -0.64471008      -0.06007550
O        0.07502806       4.21428810       6.27115777       0.56554349       0.04271440      -0.62211111
O        2.17857953       6.36273466       6.29348111       0.00609305      -0.68708675      -0.70394264
Mg       4.22592493       4.20728716       4.22190340      -0.18766139      -0.19118527      -0.01599571
Mg       6.24590085       6.24591180       4.22620327      -0.15598578      -0.14280340       0.06304810
Mg       6.25292231       4.23984962       6.23348302      -0.12940944       0.14096030      -0.21015307
Mg       4.24421501       6.26765600       6.23330293       0.08465343      -0.16443687      -0.20315382
O        6.38243390       4.20071528       4.19684935      -0.65477878       0.06105437       0.05708595
O        4.20035171       6.39051471       4.19491188       0.08228284      -0.62696098       0.04665262
O        4.18938446       4.21606470       6.33736921       0.20742302       0.10792538      -0.56175806
O        6.22041307       6.21808278       6.20871103      -0.71814928      -0.70602729      -0.72684243
C        2.13386776       2.13856876       7.91796517      -0.35733813       0.16041396      -5.40526171
O        3.27056558       2.10688422       8.44330346       7.18850774      -0.25415205       3.34426832
O        0.97275798       2.15170004       8.39841797      -6.97395048       0.05590505       2.80846686
C       -3.30102030      -0.02917293       4.25026853       0.58841552      -0.03462321      -0.05349682
O       -2.12933806      -0.07204163       4.24550720      15.61338430      -0.55761729      -0.03537510