70
Lattice="19.9999996430165 0.0 0.0 0.0 14.999999732262376 0.0 0.0 0.0 14.999999732262376" Properties=species:S:1:pos:R:3:forces:R:3 energy=-391.900450634042 free_energy=-391.900450634042 pbc="T T T"
Mg       0.27622969       0.26645645       0.24300080      -0.11122078      -0.12338493      -0.11389396
Mg       2.16565324       2.16397913       0.00807755       0.14528533       0.13938927       0.08466257
Mg       2.17109861       0.01797932       2.14170814       0.10680440       0.06521218       0.13478751
Mg       0.03052374       2.16045579       2.15468535       0.11185456       0.12287276       0.13706988
O        2.19860217       0.04864664       0.03948843      -0.04541442       0.13029065       0.06428812
O        0.04337439       2.19042182       0.05042700       0.13609826      -0.04396509       0.08034672
O        0.08107955       0.04649513       2.16668308       0.06786581       0.15142204      -0.06535050
O        2.14831983       2.14885816       2.12259668       0.01345510       0.01077241       0.02216445
Mg       4.24519738       0.12764426       0.11852890      -0.07608614       0.00403329      -0.01470311
Mg       6.24749753       2.13089163       0.12290063       0.01990882       0.11645658      -0.00342959
Mg       6.24819570       0.12603777       2.13075650       0.03587589      -0.01782777       0.09059668
Mg       4.23644912       2.14766849       2.14328472      -0.09527454       0.09230595       0.06542198
O        6.21729215       0.15799273       0.16069108       0.03534881      -0.01237858      -0.03798728
O        4.20324643       2.17533916      -0.00956867       0.02100463       0.01130386       0.06741510
O        4.20281335      -0.01745184       2.17087659       0.03899618       0.11726442      -0.02747867
O        6.38946497       2.17386169       2.17465334      -0.11361679       0.00669387      -0.00237004
Mg       0.12711219       4.24324949       0.12025540      -0.00805347      -0.10204914       0.00699906
Mg       2.13227036       6.24736642       0.12278388       0.10906928       0.01972113      -0.00863968
Mg       2.14983419       4.23502913       2.13737170       0.08950267      -0.08513308       0.06695873
Mg       0.12625767       6.24787708       2.12949155      -0.02250949       0.01351757       0.10439630
O        2.17312651       4.20274108      -0.01052956       0.00854043       0.01333991       0.06127479
O        0.15864860       6.21813271       0.16018347      -0.01854845       0.01106886      -0.03462762
O       -0.01782679       4.20114071       2.17453982       0.10523551      -0.02204515       0.01543922
O        2.17309916       6.38857818       2.17415228       0.01253876      -0.09625208      -0.05338381
Mg       4.21300716       4.21144003       0.01824939      -0.11501341      -0.11435778       0.08780497
Mg       6.11008929       6.11096116       0.26285424       0.13191482       0.13277305      -0.13202306
Mg       6.35118973       4.21329103       2.16103563      -0.06626890      -0.11994428       0.12190963
Mg       4.21493787       6.35120601       2.16053680      -0.11881299      -0.07515874       0.12818132
O        6.33009171       4.18801146       0.04893065      -0.13411568       0.04284255       0.12470082
O        4.18617447       6.33003114       0.04889780       0.05019359      -0.13626795       0.12209732
O        4.23019445       4.23246534       2.14517765       0.02342121       0.00221655       0.00199492
O        6.33003807       6.33063605       2.18691079      -0.13024154      -0.13349142      -0.05218054
Mg       0.11306749       0.13022111       4.23523277       0.00536332       0.10470278      -0.16051011
Mg       2.14575663       2.14369434       4.15246814       0.03290061      -0.00549059       0.21341725
Mg       2.15559008      -0.07018440       6.18917043       0.09108776       0.12655870      -0.14905199
Mg       0.00983927       2.10741810       6.38180978       0.36817889       0.08219251      -0.04671900
O        2.18775234      -0.00019979       4.18592556      -0.06723538       0.03306336      -0.09024675
O        0.02506793       2.17962838       4.22584081       0.02230175      -0.05455084       0.02577068
O        0.22281845       0.12702123       6.19250171      -0.07665256      -0.07449129       0.09390157
O        2.16380080       2.17976777       6.47747157       0.06652421       0.08856113      -0.31046919
Mg       4.22606873       0.03493041       4.20432139      -0.10786909       0.17900534      -0.18827443
Mg       6.35397065       2.16108210       4.20866754      -0.11310643       0.12764447      -0.04196709
Mg       6.10994371       0.24403656       6.10419315       0.19781348      -0.11119558       0.03704471
Mg       4.30961334       2.16870142       6.50488891      -0.29390640       0.10936727       0.00629175
O        6.33671845       0.04551653       4.18476333      -0.11336148       0.12744650      -0.03547660
O        4.21539365       2.14550055       4.25088534      -0.00381346      -0.02471936      -0.01063537
O        4.18012781       0.01260782       6.27566307       0.10410217       0.06203301      -0.02593909
O        6.36529615       2.18126302       6.31145722      -0.21191444      -0.08249230      -0.01040268
Mg       0.03053132       4.21266501       4.21278541       0.09574403      -0.17823813      -0.08219560
Mg       2.16262912       6.36907461       4.19701682       0.11894540      -0.00988512      -0.08839658
Mg       2.16703771       4.34373487       6.30421307       0.06956968      -0.41732038      -0.11194660
Mg       0.24105783       6.13600743       6.10326427      -0.13234908       0.23241307       0.05846097
O        2.14900903       4.22342050       4.23572895       0.00119325       0.00134366      -0.03111035
O        0.04957921       6.34365416       4.18035143       0.12092001      -0.09796417      -0.02921519
O        0.05917089       4.21246943       6.28018649       0.09339224       0.05537616      -0.03531076
O        2.18103102       6.37086965       6.31881883      -0.06205049      -0.05435955      -0.18626897
Mg       4.23420620       4.22061517       4.22812614      -0.07946894      -0.12599460      -0.06060399
Mg       6.24879138       6.24742916       4.24011644       0.01112105       0.02371200      -0.12976306
Mg       6.24949920       4.25224525       6.24473300       0.07675489      -0.13502328      -0.06789512
Mg       4.25810082       6.25933374       6.24339635      -0.14420495       0.12107865      -0.05057926
O        6.39420761       4.20367290       4.20051524      -0.09692725      -0.00707079      -0.02644765
O        4.19961529       6.40086151       4.19875574       0.02549994      -0.08696628      -0.01877985
O        4.18881217       4.22078118       6.34069001       0.03785127      -0.02782294      -0.00048002
O        6.22109513       6.21912348       6.21690891       0.06264827       0.05862655      -0.00101044
C        2.12817766       2.13785225       7.93251709       0.05985862       0.00714355      -0.77121345
O        3.29312805       2.11279023       8.40595149      -0.26200698      -0.04589393       0.69889577
O        0.95764269       2.14632169       8.37485444       0.19258154       0.02882849       0.58477762
C       -3.28294175      -0.02312238       4.25346183      -0.70016461      -0.01864487      -0.04121581
O       -2.11995146      -0.05224142       4.24580265       0.79649382      -0.15504138       0.00608657
O       -4.44953713       0.00900316       4.25191304      -0.39355130       0.02282805       0.03503617
70
Lattice="19.9999996430165 0.0 0.0 0.0 14.999999732262376 0.0 0.0 0.0 14.999999732262376" Properties=species:S:1:pos:R:3:forces:R:3 energy=-391.987825707358 free_energy=-391.987825707358 pbc="T T T"
Mg       0.28206678       0.27117299       0.24602027      -0.05424411      -0.05261814      -0.06087138
Mg       2.17630698       2.17434026       0.01006007       0.02784016       0.02465662       0.09929420
Mg       2.18066454       0.01948297       2.15124516      -0.00252045       0.10642542      -0.03084450
Mg       0.03501755       2.16972394       2.16460445       0.13992406       0.02162066       0.00374173
O        2.20685760       0.06032039       0.04706696      -0.13851921       0.06167768       0.02787616
O        0.05495227       2.19794721       0.05973310       0.07440798      -0.13579641       0.03028322
O        0.09143080       0.05852279       2.17251502       0.00974859       0.09667451      -0.14459730
O        2.15067567       2.15128649       2.12143499       0.02933089       0.01651214       0.12670705
Mg       4.23672203       0.13331438       0.12300356       0.04486421       0.01210321      -0.02421799
Mg       6.24286288       2.14133974       0.12810421       0.01420586      -0.01149566      -0.00367488
Mg       6.24403998       0.13062099       2.14042590       0.04126081      -0.00041035      -0.06602104
Mg       4.23005105       2.15455844       2.14943983      -0.03678657       0.03595893      -0.01654556
O        6.20969432       0.16667339       0.16818736       0.05603591      -0.02607047      -0.04494468
O        4.20056206       2.17981809      -0.00449268       0.05275852      -0.02651913       0.04331126
O        4.20130127      -0.01067241       2.17253779       0.04698717       0.08742548      -0.04146110
O        6.38274168       2.17802935       2.17798676      -0.08555063      -0.02998626      -0.01063408
Mg       0.13217802       4.23342349       0.12583279      -0.00028102       0.01949462      -0.00197821
Mg       2.14247233       6.24273102       0.12772162      -0.02030040       0.01232458      -0.01445269
Mg       2.15682940       4.22899819       2.14282958       0.02793169      -0.02773166       0.00355275
Mg       0.13066030       6.24283747       2.13960128      -0.01188827       0.00480693      -0.04850900
O        2.17730466       4.19965816      -0.00578859      -0.02414394       0.04512723       0.04012746
O        0.16711691       6.20952077       0.16777691      -0.03682900       0.02456278      -0.03518940
O       -0.01148133       4.19658743       2.17859165       0.07367728       0.00533093       0.00351984
O        2.17746526       6.38248444       2.17522994      -0.02266685      -0.06547674      -0.05556565
Mg       4.20404587       4.20236780       0.02118180      -0.00719960      -0.00296397       0.10501054
Mg       6.10589878       6.10683259       0.26708256       0.06707185       0.06654478      -0.07517134
Mg       6.34890856       4.20412817       2.17036519      -0.09375682      -0.01650211       0.00127115
Mg       4.20593343       6.34852692       2.17009560      -0.01205153      -0.10406000       0.00688696
O        6.31854204       4.18052324       0.06022320      -0.06095880       0.14411008       0.06114803
O        4.17887685       6.31843031       0.06009394       0.15261914      -0.06674867       0.05773721
O        4.22998090       4.23153205       2.14632314      -0.00779713      -0.02920156       0.04289371
O        6.31867658       6.31922940       2.19382741      -0.05848077      -0.06640697      -0.14419749
Mg       0.11354142       0.14261547       4.22182225      -0.00994528       0.02031686      -0.00535381
Mg       2.14973329       2.14512787       4.15844850       0.00380318      -0.01375103       0.07053333
Mg       2.16788354      -0.06981153       6.17330680      -0.06269404       0.02647131      -0.08676213
Mg       0.02869423       2.11368241       6.38695954       0.17917787       0.00255491      -0.04948679
O        2.18879999       0.00275001       4.17494840      -0.06641751       0.04332772       0.02517547
O        0.02894258       2.17989129       4.22492427       0.04454462      -0.05017405       0.06690268
O        0.23044214       0.13023325       6.18615873       0.00550139      -0.02836595       0.06222404
O        2.16933344       2.18776377       6.47486354       0.07035644       0.02917739      -0.21327326
Mg       4.21776864       0.04407411       4.19131831       0.01639772       0.15884507      -0.06754905
Mg       6.34914519       2.17036167       4.20254776      -0.12200193       0.02849374       0.02985488
Mg       6.10881832       0.24658359       6.09455063       0.11382299      -0.03501328       0.01583182
Mg       4.29326418       2.17818110       6.52054364      -0.00078059      -0.00983267      -0.04660639
O        6.32700900       0.05669795       4.17361323      -0.05541704       0.07126918       0.08116484
O        4.21421636       2.14615161       4.25029383      -0.06900558      -0.01422926      -0.00673449
O        4.17653999       0.01818830       6.26641621       0.13491581       0.06164323      -0.00240810
O        6.35360787       2.18632166       6.30499784      -0.17495894      -0.15298681       0.02666800
Mg       0.03499879       4.20007384       4.20532072       0.09920190      -0.03267358       0.01029341
Mg       2.17165399       6.37070666       4.18764151       0.02133424      -0.04853111       0.01073950
Mg       2.17466638       4.32496506       6.29817021      -0.04018480      -0.07642013      -0.13675363
Mg       0.24260528       6.13933980       6.09485904      -0.02602599       0.10377281       0.01539268
O        2.15085335       4.22339180       4.23184504       0.01661704      -0.08205753       0.00023860
O        0.06094845       6.33512859       4.16913412       0.05058491      -0.04873552       0.08963843
O        0.06875467       4.20751122       6.27056695       0.08235912       0.10966218       0.00690444
O        2.18682618       6.36787299       6.30408766      -0.13752651      -0.07605169      -0.12811910
Mg       4.22779489       4.21041813       4.22272120      -0.01141544      -0.02028240      -0.00903100
Mg       6.24379415       6.24282824       4.22854631       0.01024867       0.02437457       0.00695509
Mg       6.24755808       4.24199241       6.23532589       0.05634110       0.00275571      -0.03792711
Mg       4.24767630       6.26048344       6.23512461      -0.01590793       0.07883311      -0.03945538
O        6.38865031       4.20005335       4.19549214      -0.07086243       0.00895130       0.02410255
O        4.19705938       6.39620486       4.19402732       0.04633822      -0.06356487       0.01734955
O        4.18731491       4.21736839       6.33623979       0.01680756      -0.02732157       0.02045390
O        6.21531633       6.21283372       6.20794610       0.04909521       0.05056589      -0.00624161
C        2.13051035       2.13952446       7.92067460      -0.08066425      -0.01667900      -0.04615490
O        3.28302904       2.10976546       8.42564247      -0.12179316      -0.03621862       0.28590204
O        0.96623713       2.14910902       8.38596874       0.15326860       0.03407200       0.17926785
C       -3.29384266      -0.02574405       4.25193374      -0.04804852      -0.04948988      -0.01989982
O       -2.12003538      -0.06239819       4.24559793      -0.32489102      -0.11364790      -0.00036381
O       -4.46446611       0.01046784       4.25355968       0.08313585       0.01757143       0.02204155
70
Lattice="19.9999996430165 0.0 0.0 0.0 14.999999732262376 0.0 0.0 0.0 14.999999732262376" Properties=species:S:1:pos:R:3:forces:R:3 energy=-392.013341685946 free_energy=-392.013341685946 pbc="T T T"
Mg       0.27769689       0.26677167       0.24165637      -0.01613521      -0.00642313      -0.02995772
Mg       2.17844342       2.17635435       0.01316606      -0.01469771      -0.01665638       0.08293119
Mg       2.18165803       0.02245671       2.15212636      -0.02916197       0.10207074      -0.07058604
Mg       0.03920969       2.17148109       2.16620466       0.12578325      -0.01447505      -0.03768286
O        2.20312271       0.06305018       0.04828864      -0.08152325       0.03948675       0.01814916
O        0.05806959       2.19431482       0.06114615       0.05376048      -0.08033386       0.01706441
O        0.09209602       0.06228137       2.16853343      -0.00481028       0.07018855      -0.09011742
O        2.15138344       2.15167310       2.12443922       0.03672101       0.02478775       0.12412900
Mg       4.23664700       0.13283167       0.12154944       0.05149971       0.02145611      -0.01485918
Mg       6.24421726       2.14262620       0.12721678       0.00328870      -0.02399482       0.00724948
Mg       6.24616590       0.12961865       2.14020351       0.02623399       0.01871377      -0.07513663
Mg       4.22814210       2.15635932       2.14981970      -0.00825813       0.00847847      -0.02827854
O        6.21229183       0.16502805       0.16578030       0.03940318      -0.00744437      -0.02910206
O        4.20221951       2.17911208      -0.00259155       0.03515546      -0.01706441       0.03456488
O        4.20305434      -0.00715340       2.17101009       0.02375288       0.06896650      -0.03732856
O        6.37933302       2.17719913       2.17745748      -0.06675175      -0.01994353      -0.00219238
Mg       0.13127381       4.23248894       0.12512288       0.01145375       0.02800394       0.00484550
Mg       2.14346401       6.24404131       0.12652644      -0.03158035      -0.00131846      -0.00566903
Mg       2.15840710       4.22741926       2.14369868       0.00325039      -0.00357332      -0.00651543
Mg       0.12934041       6.24388489       2.13993492       0.00521497      -0.01196334      -0.06026280
O        2.17663342       4.20105457      -0.00402218      -0.01532532       0.03012356       0.03511330
O        0.16515216       6.21111567       0.16563532      -0.02057680       0.00739835      -0.01548215
O       -0.00840083       4.19671154       2.17857099       0.05791101       0.00209879       0.00601201
O        2.17687131       6.37972685       2.17311973      -0.01658207      -0.04984238      -0.02726783
Mg       4.20270420       4.20113667       0.02440090       0.03210871       0.03511176       0.09024444
Mg       6.11071579       6.11164224       0.26209958       0.02375648       0.02195645      -0.03138211
Mg       6.34622161       4.20251290       2.17166641      -0.08619932       0.01819415      -0.03622016
Mg       4.20442549       6.34550636       2.17159431       0.02667417      -0.09689202      -0.03513515
O        6.31577646       4.18431372       0.06285982      -0.03235425       0.09320917       0.03653640
O        4.18295343       6.31550832       0.06262381       0.09824288      -0.03877018       0.03293377
O        4.23018215       4.23099954       2.14718677      -0.02918511      -0.04165881       0.05357305
O        6.31601269       6.31634431       2.18991362      -0.03084964      -0.03984953      -0.09196425
Mg       0.11279349       0.14355594       4.21968577      -0.02951266       0.00018306       0.02451958
Mg       2.15012677       2.14466099       4.16316215       0.00414462      -0.01431179       0.00851935
Mg       2.16769739      -0.06739832       6.17078276      -0.03893447      -0.02543901      -0.05961823
Mg       0.03694071       2.11494848       6.38542650       0.07872307      -0.01196694      -0.03003948
O        2.18620167       0.00416465       4.17469534      -0.04015806       0.04285926       0.02431852
O        0.03015010       2.17784127       4.22686636       0.04901294      -0.02705392       0.06530114
O        0.22829202       0.12794463       6.18973649       0.04299424       0.00759632       0.01856594
O        2.17149411       2.18911860       6.46586033       0.04584020      -0.00605958      -0.00393739
Mg       4.21692956       0.04951312       4.18783399       0.04966291       0.12754754      -0.00633571
Mg       6.34522141       2.17232266       4.20289331      -0.11515791      -0.01295219       0.04094250
Mg       6.11543079       0.24277262       6.09710766       0.04041209      -0.00713378      -0.00605238
Mg       4.28927894       2.17905096       6.51901163       0.08550718      -0.05286754      -0.00429914
O        6.32460254       0.05961953       4.17511472      -0.02621831       0.05177816       0.04753841
O        4.21286053       2.14546239       4.25003150      -0.07851301       0.00807866      -0.00815888
O        4.18095176       0.02028445       6.26653536       0.06680549       0.05282151      -0.01831037
O        6.34725640       2.18188217       6.30576271      -0.11930844      -0.09300811       0.02154404
Mg       0.03811860       4.19738012       4.20476322       0.08411570       0.01910073       0.03654103
Mg       2.17335002       6.36960345       4.18704387      -0.01353609      -0.05534994       0.02190143
Mg       2.17442634       4.31765668       6.29433338      -0.04789322       0.06655995      -0.11920766
Mg       0.23878360       6.14604644       6.09767638       0.01937172       0.02657107      -0.01769845
O        2.15112743       4.22177148       4.23150482       0.02564367      -0.09156007      -0.00625575
O        0.06331510       6.33300409       4.17091475       0.02728198      -0.02977466       0.05566901
O        0.07142244       4.21060588       6.27074999       0.07541740       0.07248891       0.00840237
O        2.18297018       6.36559898       6.29924942      -0.08643200      -0.05912329      -0.10054813
Mg       4.22662159       4.20854349       4.22190346       0.00739475       0.00563432       0.01898888
Mg       6.24494613       6.24444575       4.22701103       0.00067517       0.00955525       0.02006977
Mg       6.25048316       4.24029276       6.23448339       0.01693920       0.03423038      -0.02454941
Mg       4.24540833       6.26438433       6.23446884       0.01928019       0.02526752      -0.03601781
O        6.38574707       4.20041601       4.19597330      -0.05267908       0.00195378       0.02308851
O        4.19865032       6.39354130       4.19445158       0.02709943      -0.04716972       0.00872992
O        4.18850478       4.21662254       6.33679768      -0.00184785      -0.00984193       0.00882711
O        6.21805268       6.21556059       6.20872290       0.01622469       0.02235857      -0.02687728
C        2.12888283       2.13920815       7.91489853       0.18691303      -0.01863381       0.34259075
O        3.27747672       2.10845513       8.43747920      -0.20657451      -0.02720561      -0.08655002
O        0.97220414       2.15010111       8.39400078      -0.00909271       0.03709819      -0.06183272
C       -3.29647322      -0.02707046       4.25093115      -0.13152890      -0.04844113       0.00099990
O       -2.12567650      -0.06634271       4.24572093      -0.01292108      -0.11962212      -0.01194329
O       -4.46505389       0.01101866       4.25447621      -0.12937148       0.02579099       0.01296582
70
Lattice="19.9999996430165 0.0 0.0 0.0 14.999999732262376 0.0 0.0 0.0 14.999999732262376" Properties=species:S:1:pos:R:3:forces:R:3 energy=-392.028228217721 free_energy=-392.028228217721 pbc="T T T"
Mg       0.27389284       0.26323177       0.23754890       0.00213762       0.02018136      -0.01140310
Mg       2.17949300       2.17727838       0.01727191      -0.03645104      -0.03560669       0.06021344
Mg       2.18162958       0.02692721       2.15110503      -0.03855652       0.08434375      -0.07042689
Mg       0.04506827       2.17228545       2.16641007       0.09595588      -0.03300679      -0.04452405
O        2.19899972       0.06590616       0.04955628      -0.01257449       0.01988157       0.00428166
O        0.06155638       2.19028385       0.06251487       0.03570902      -0.01129820       0.00125521
O        0.09238910       0.06656049       2.16396676      -0.01584494       0.04238206      -0.03240721
O        2.15277803       2.15257177       2.12931852       0.03691898       0.02603653       0.08243137
Mg       4.23762956       0.13286998       0.12007475       0.04166653       0.02559353      -0.00551373
Mg       6.24538844       2.14314954       0.12666824      -0.00421404      -0.01977898       0.01482678
Mg       6.24838353       0.12927850       2.13848548       0.00938813       0.03166134      -0.06097294
Mg       4.22665593       2.15775757       2.14951188       0.01184816      -0.01456993      -0.02482297
O        6.21516910       0.16361469       0.16324435       0.02914474       0.00584463      -0.02327800
O        4.20414393       2.17826203      -0.00038691       0.01247114       0.00028848       0.02309082
O        4.20478914      -0.00298672       2.16896291       0.00426469       0.04973105      -0.02987031
O        6.37531730       2.17619424       2.17702047      -0.04439190      -0.00289301       0.00411788
Mg       0.13078403       4.23230161       0.12463990       0.01802060       0.02148337       0.01054692
Mg       2.14359978       6.24505513       0.12543651      -0.02863540      -0.01164838       0.00258447
Mg       2.15954414       4.22625909       2.14425005      -0.01728476       0.01369909      -0.00405566
Mg       0.12844156       6.24441555       2.13895030       0.01623960      -0.02480883      -0.04607391
O        2.17584174       4.20268592      -0.00187888       0.00197615       0.00858080       0.02850428
O        0.16318162       6.21250319       0.16363725      -0.00831495      -0.00309252      -0.00691987
O       -0.00479218       4.19685914       2.17864711       0.04281632      -0.00334398       0.00408240
O        2.17608950       6.37655965       2.17107059      -0.00191727      -0.03332664      -0.00235564
Mg       4.20263520       4.20120817       0.02875295       0.04748416       0.04996322       0.06712893
Mg       6.11498116       6.11584899       0.25756166      -0.00004551      -0.00332701      -0.00293620
Mg       6.34233291       4.20188064       2.17164810      -0.06941130       0.03367579      -0.04766671
Mg       4.20409447       6.34112059       2.17171584       0.04266386      -0.07919229      -0.05226436
O        6.31310350       4.18878336       0.06553843      -0.00461642       0.02760465       0.01113750
O        4.18772770       6.31256905       0.06513871       0.03078459      -0.01189084       0.00730450
O        4.22956514       4.22961288       2.14905339      -0.03608286      -0.04086229       0.04733272
O        6.31344739       6.31340122       2.18537017      -0.00396438      -0.01490880      -0.02828419
Mg       0.11148254       0.14411473       4.21865633      -0.03610317      -0.00988692       0.04256641
Mg       2.15055295       2.14396698       4.16695949       0.00074279      -0.01662681      -0.00942438
Mg       2.16709757      -0.06615252       6.16779538      -0.01822244      -0.04043780      -0.03161891
Mg       0.04465998       2.11567938       6.38366502       0.03144151      -0.01654402       0.01127146
O        2.18345000       0.00615550       4.17491156      -0.00245078       0.03195444      -0.00173292
O        0.03213036       2.17579878       4.22975968       0.04451017       0.00130304       0.04297959
O        0.22750356       0.12641545       6.19281130       0.05427162       0.01464166      -0.02047884
O        2.17393849       2.18971620       6.46032161       0.06283056      -0.02931263       0.14410802
Mg       4.21751051       0.05632399       4.18545223       0.04874837       0.09027040       0.02769001
Mg       6.33966422       2.17326902       4.20410230      -0.10370750      -0.03468264       0.03329810
Mg       6.12120254       0.23949160       6.09907759      -0.01355846      -0.00041960      -0.01907347
Mg       4.28817483       2.17827372       6.51793522       0.10582558      -0.06807638      -0.01111462
O        6.32238178       0.06290685       4.17694250       0.00339694       0.03219150       0.00489847
O        4.21017044       2.14527445       4.24960005      -0.05469842       0.02439437      -0.00905465
O        4.18533541       0.02298424       6.26618178       0.01144578       0.03803819      -0.01596629
O        6.34014440       2.17696853       6.30682890      -0.05566875      -0.02343303       0.02389403
Mg       0.04227078       4.19599060       4.20531822       0.06121694       0.04134257       0.04885405
Mg       2.17413569       6.36748350       4.18707614      -0.03344748      -0.05525918       0.01243128
Mg       2.17319884       4.31398176       6.28890821      -0.04719954       0.11733846      -0.08348115
Mg       0.23622726       6.15157399       6.09952450       0.03246095      -0.02958337      -0.03124944
O        2.15194973       4.21859873       4.23096498       0.03130627      -0.06962290      -0.01723025
O        0.06560531       6.33083356       4.17313757       0.00750839      -0.00955705       0.00251171
O        0.07502806       4.21428810       6.27115777       0.05607910       0.04328786       0.00165322
O        2.17857953       6.36273466       6.29348111      -0.01314554      -0.02343432      -0.06864357
Mg       4.22592493       4.20728716       4.22190340       0.01226519       0.01592978       0.03936719
Mg       6.24590085       6.24591180       4.22620327      -0.00720809      -0.00378929       0.01278995
Mg       6.25292231       4.23984962       6.23348302      -0.01964426       0.04789374      -0.01230736
Mg       4.24421501       6.26765600       6.23330293       0.03327625      -0.01917632      -0.03048634
O        6.38243390       4.20071528       4.19684935      -0.03268541      -0.00753873       0.01503890
O        4.20035171       6.39051471       4.19491188       0.00712350      -0.03109312      -0.00620793
O        4.18938446       4.21606470       6.33736921      -0.00686047       0.00540677       0.01126580
O        6.22041307       6.21808278       6.20871103      -0.00402301       0.00456037      -0.03438645
C        2.13386776       2.13856876       7.91796517      -0.47471409       0.00838282       0.31308040
O        3.27056558       2.10688422       8.44330346       0.24166416      -0.03960502      -0.00922435
O        0.97275798       2.15170004       8.39841797       0.18337133       0.03351484      -0.25285848
C       -3.30102030      -0.02917293       4.25026853      -0.04844704      -0.05071321       0.01366336